% Model:              model_laminar.mph
% Version:            COMSOL 6.3.0.290
% Date:               Apr 1 2025, 16:02
% Table:              Table 1 - Line Integration 1
% -spf.K_stressz (N)     spf.nzmesh*p (N)
0.4424005962965943       0.2891700971123701
