% Model:              model_laminar.mph
% Version:            COMSOL 6.3.0.290
% Date:               Mar 21 2025, 14:45
% Table:              Table 1 - Line Integration 1
% -spf.K_stressz (N)     spf.nzmesh*p (N)
0.44240059629656897      0.28917009711235525
