% Model:              model_laminar.mph
% Version:            COMSOL 6.3.0.290
% Date:               Apr 1 2025, 16:03
% Table:              Table 1 - Line Integration 1
% -spf.K_stressz (N)     spf.nzmesh*p (N)
9.145798336214602        8.200505892526646
