% Model:              model_laminar.mph
% Version:            COMSOL 6.3.0.290
% Date:               Mar 21 2025, 14:48
% Table:              Table 1 - Line Integration 1
% -spf.K_stressz (N)     spf.nzmesh*p (N)
9.145798336214623        8.200505892526675
