% Model:              model_creeping.mph
% Version:            COMSOL 6.3.0.290
% Date:               Apr 1 2025, 15:57
% Table:              Table 1 - Line Integration 1
% F_t (N)                F_n (N)
0.0025373866158251604    0.052704142502462165
