% Model:              model.mph
% Version:            COMSOL 6.3.0.290
% Date:               Mar 21 2025, 13:45
% Dimension:          2
% Nodes:              4895
% Expressions:        8
% Description:        radius (spherical), theta (spherical), v_r (spherical), v_theta (spherical), u_r (cylindrical), u_z (cylindrical), Velocity magnitude, Pressure
% Length unit:        m
% r                       z                        sqrt(r^2 + z^2) (m)      atan2(r, z) (rad)        u_r*sin(theta) + u_z*cos(theta) (m/s) u*cos(theta) - w*sin(theta) (m/s) u (m/s)                  w (m/s)                  spf.U (m/s)              p (Pa)
0.018059802585330638      -0.981056344671386       0.9812225577764723       3.1231862051736226       -0.008998228367088067                 -1.658704510978307E-4             2.2627946528666724E-7    0.008999757035698984     0.00899975703854364      12160.981633785263
0                         -0.9720405952404151      0.9720405952404151       3.141592653589793        -0.008999480533429229                 -1.102118502925302E-18            0                        0.008999480533429229     0.008999480533429229     12049.22416714666
0                         -1.0000000000000002      1.0000000000000002       3.141592653589793        -0.009                                3.486904387862244E-17             -3.5971225997855055E-17  0.009                    0.009                    12395.803488135416
0.02777777777777779       -1                       1.0003857280760615       3.1138220169963717       -0.008996529785874466                 -2.499036051631439E-4             -3.5971225997855055E-17  0.009                    0.009                    12395.80348428153
0.020699081606741145      -0.9578653692540474      0.9580889925239487       3.1199864224929446       -0.00899673813808999                  -1.94963715868604E-4              5.477307232535103E-7     0.008998850353009506     0.008998850369678799     11873.510837826521
0                         -0.9440811904808297      0.9440811904808296       3.141592653589793        -0.008998011207534198                 -1.1019385623998767E-18           0                        0.008998011207534198     0.008998011207534198     11702.644858713282
0.05555555555555536       -1                       1.0015420209622192       3.0860941483440762       -0.008986143178848712                 -4.992301766027035E-4             0                        0.009                    0.009                    12395.803474982946
0.04182215354213424       -0.9753757588624679      0.976271972097651        3.0987409104746324       -0.008991308861178984                 -3.861998505340679E-4             6.699696078056771E-7     0.008999599152896142     0.008999599177833882     12090.566197023565
0.021726318426419703      -0.9302488052012658      0.9305024838713484       3.1182415143925195       -0.008994500178538688                 -2.1096899614861026E-4            8.987419709586285E-7     0.008996973967469913     0.00899697401235929      11531.181320282225
0                         -0.9161217857212446      0.9161217857212446       3.141592653589793        -0.008995694155228868                 -1.1016548053309587E-18           0                        0.008995694155228868     0.008995694155228868     11356.065560077966
0.07098479969139578       -0.9773920509589549      0.9799663581291859       3.069093203016021        -0.008975950980993519                 -6.529352086946987E-4             1.0384033445340083E-6    0.008999667733959415     0.008999667793866154     12115.559747706198
0.08333333333333326       -1                       1.0034662148993578       3.0584514217013514       -0.008968911824203915                 -7.474093186836608E-4             0                        0.009                    0.009                    12395.803459219213
0.0426147301745094        -0.9443903625261525      0.945351348473214        3.0964991801908117       -0.0089888420728355                   -4.070537799760045E-4             1.4392398405256437E-6    0.008998053818396455     0.008998053933499754     11706.477288453258
0.06252200475179942       -0.956635469121037       0.9586763905816241       3.076329327217237        -0.00897954238805089                  -5.885506685199982E-4             1.6788282701441123E-6    0.008998809397345498     0.008998809553947568     11858.2652246985
0.0980566058004551        -0.9772642157644246      0.9821712912495261       3.041589491638248        -0.00895456796414517                  -8.999114666202612E-4             1.4220866797283966E-6    0.008999673663523533     0.008999673775879303     12113.975111071406
0.11111111111111105       -1                       1.0061539042374907       3.0309354324158977       -0.00894495361206257                  -9.93883734673618E-4              0                        0.009                    0.009                    12395.8034377246
0.022380431991997088      -0.9025123994814941      0.9027898509365248       3.1167998128723906       -0.008991505228079828                 -2.2420282207424736E-4            1.231799024844672E-6     0.00899429995356415      0.008994300037913619     11187.366278533009
0                         -0.8881623809616594      0.8881623809616594       3.141592653589793        -0.008992604120063351                 -1.1012763851634885E-18           0                        0.008992604120063351     0.008992604120063351     11009.486270447256
0.04466184828351596       -0.9165209191390936      0.9176084545772608       3.0929014055871487       -0.008985017623475243                 -4.399863132991719E-4             2.1459766847026574E-6    0.008995783737109034     0.00899578399307427      11361.013133435103
0.08536710625855433       -0.9546632949810713      0.9584725085338001       3.0524086907925327       -0.00896275613589302                  -8.038321104806811E-4             2.3625672730556973E-6    0.00899872980101101      0.00899873011115056      11833.81852911871
0.0697222184038253        -0.931059516944699       0.9336664349929514       3.0668473489344623       -0.008971786689113108                 -6.746759022440644E-4             2.817439428173151E-6     0.008997118206962222     0.008997118648101514     11541.230730918864
0.12540761527873076       -0.9771946249002349      0.9852088128431501       3.0139559871456787       -0.008926248272664042                 -0.0011473489884718973            1.790234857605016E-6     0.008999684145660025     0.00899968432371854      12113.112454729855
0.13888888888888906       -1                       1.0095989914103471       3.0035866299322738       -0.008914430458599763                 -0.0012381153414721896            0                        0.009                    0.009                    12395.80341082117
0.11212683576153507       -0.9543772974212443      0.9609414410519365       3.0246418784656703       -0.008936927299009044                 -0.0010530644949607929            3.0714329886248818E-6    0.008998755744247062     0.00899875626841399      11830.273342294558
0.02244890217186399       -0.8744604725581446      0.8747485760350431       3.115926573449681        -0.008987850319990177                 -2.3226047522233019E-4            1.5264184329805089E-6    0.008990850681272868     0.008990850810846438     10839.640106558223
0                         -0.8602029762020742      0.8602029762020743       3.141592653589793        -0.008988790155011977                 -1.100809309154266E-18            0                        0.008988790155011977     0.008988790155011977     10662.906989033707
0.04469328881229368       -0.88848973142687        0.8896131141770846       3.0913324785138356       -0.00898123840537039                  -4.5452351886362494E-4            2.7409637068031227E-6    0.008992731921413992     0.008992732339133653     11013.544036818117
0.06683382651283011       -0.9024245993506788      0.9048960812599313       3.067667325921953        -0.008969590573024586                 -6.679383318532194E-4             3.6378997910776375E-6    0.008994425130520319     0.008994425866215718     11186.277914343242
0.09879747695419146       -0.931242512623002       0.9364686640613854       3.0358959246057116       -0.008946592520912885                 -9.531098312721696E-4             3.924985231442756E-6     0.008997217385403834     0.008997218241530103     11543.499094760598
0.0872585358913764        -0.9115394608718577      0.9157064162778721       3.0461568966227333       -0.008954105670922037                 -8.614975654988505E-4             4.3320383753979235E-6    0.008995452609782463     0.008995453652895924     11299.263939127144
0.1530331770885758        -0.9772114667192667      0.9891215314497223       2.986252411981702        -0.008891003839068113                 -0.0013945065056688805            2.1323797813162253E-6    0.008999699612411137     0.008999699865033095     12113.321196192066
0.16666666666666674       -1                       1.0137937550497034       2.9764439761751667       -0.008877545314489293                 -0.0014795908857482172            0                        0.009                    0.009                    12395.803378977043
0.13961708884003046       -0.9542702319099645      0.9644296796582229       2.9963156924303935       -0.008903464723994135                 -0.0013064389297054299            3.7534670993559024E-6    0.00899880284704263      0.008998803629842013     11828.946157388476
0.12624531644986384       -0.9308499780743427      0.9393718973902353       3.006791441655998        -0.008915004091413723                 -0.001214079650668209             4.94852309885581E-6      0.008997291973711267     0.008997293334558456     11538.633295605096
0.02246628516073547       -0.8464039755345478      0.8467020867870888       3.1150556666557354       -0.008983477830434591                 -2.4025888377070902E-4            1.807837409662906E-6     0.008986689879642252     0.008986690061482066     10491.857292469793
0                         -0.832243571442489       0.832243571442489        3.141592653589793        -0.008984279170526096                 -1.100256872883102E-18            0                        0.008984279170526096     0.008984279170526096     10316.327715254454
0.04489804746158695       -0.8605894234503858      0.8617598217720124       3.089468635439552        -0.008976599717684173                 -4.7164191933295483E-4            3.3167562391719933E-6    0.008988980898340352     0.00898898151024907      10667.697307724431
0.06691575520563754       -0.8744164641893862      0.8769731302270377       3.0652153325628677       -0.008964505070945079                 -6.905308712729245E-4             4.498354475248493E-6     0.008991060216458789     0.008991061341753872     10839.094577462101
0.08890455596333217       -0.8879833251085472      0.8924227729847939       3.0418055636392407       -0.00894765429040069                  -9.012414247185498E-4             5.378757233649898E-6     0.008992926357706108     0.008992927966249625     11007.266708450246
0.11203005421335918       -0.9050050069596922      0.9119127127467631       3.018429781665623        -0.0089261013808877                   -0.0011108226365170724            5.821199993295338E-6     0.008994952968488198     0.008994954852120386     11218.264118525578
0.18075708591825337       -0.9772767530489005      0.9938525927719163       2.9586995860242737       -0.008849173716603808                 -0.0016392263786294133            2.4419909340759276E-6    0.008999718474691665     0.008999718805997562     12114.130442000685
0.19444444444444453       -1                       1.0187289344940138       2.949544636349063        -0.008834538507017231                 -0.001717826931920017             0                        0.009                    0.009                    12395.803342746609
0.16720762781511833       -0.9544695527144177      0.9690049111632096       2.9681686293259073       -0.008863135498072286                 -0.0015571094542089802            4.3649960912217075E-6    0.008998874466086588     0.008998875524729525     11831.416873067603
0.1539703675299491        -0.9314927748024774      0.9441322278084393       2.97777963045731         -0.008876058486863486                 -0.0014730902220329919            5.849721949471119E-6     0.008997464912141845     0.008997466813746552     11546.601255662748
0.14156101711944097       -0.9082204903849874      0.9191865864573078       2.98697043572361         -0.00888708805464373                  -0.0013922708758822764            6.988475997994995E-6     0.008995482390846228     0.00899548510547493      11258.122599684039
0.20845591431316288       -0.9773354830335718      0.999319025441126        2.931451485811515        -0.00880119072246263                  -0.0018799861213127593            2.7187362643709125E-6    0.00899973880498562      0.00899973921563791      12114.858412961623
0.2222222222222222        -1                       1.0243938285880987       2.922923707715851        -0.008785683541655574                 -0.0019523741203679062            0                        0.009                    0.009                    12395.803302758233
0                         -0.012201308226429683    0.012201308226429683     3.141592653589793        -4.1978592908555626E-4                -5.140894943817243E-20            0                        4.1978592908555626E-4    4.1978592908555626E-4    153.3083674488707
0.0020129089564233423     -0.011860499133471036    0.012030097346319211     2.97347914816161         -3.675701376691394E-4                 -3.5546411904304105E-4            2.88950002114956E-4      4.2186543151924915E-4    5.113340845603345E-4     149.1093813792132
0                         -0.010870800964035634    0.010870800964035634     3.141592653589793        -8.464858247744137E-5                 -1.0366461558335932E-20           0                        8.464858247744137E-5     8.464858247744137E-5     137.3605359581204
0.002128588027399751      -0.010654288603358656    0.010864840202876787     2.944401939585434        -8.450924315493674E-5                 -2.09885475919058E-4              1.8926141871522875E-4    1.2399129230026017E-4    2.2626030403141798E-4    134.61885328251338
0                         -0.014235371127823006    0.014235371127823006     3.141592653589793        -0.0010893830573805547                -1.3341094742664538E-19           0                        0.0010893830573805547    0.0010893830573805547    177.972023856861
0.0016289714823970174     -0.013443554136554204    0.013541886719099611     3.0210093215622624       -8.514273868286872E-4                 -3.76891787836059E-4              2.717357113710727E-4     8.905816739333035E-4     9.311154680168233E-4     168.2995224119163
0.00391695626977252       -0.011254143452108003    0.011916303590456886     2.806659915793421        -3.2333584365594215E-4                -6.68133469822093E-4              5.247245932446435E-4     5.249880975159844E-4     7.422589853206288E-4     141.54660030971775
0.0041522340328235844     -0.010024954347564834    0.010850841309967512     2.748913837776512        -7.59571273445712E-5                  -4.005731708066944E-4             3.41018348282511E-4      2.2346104022678452E-4    4.077111114068006E-4     126.67356821974593
0.005899779410760234      -0.010473314882312713    0.012020720515830294     2.6285840064299184       -3.2533111656369874E-4                -0.0010395698637021692            7.460751366544949E-4     7.936735647533601E-4     0.0010892868478607138    131.68257889842766
0.006014646648057178      -0.009018651956681535    0.010840297847233771     2.5534202665334527       -6.696504136180677E-5                 -5.742220936849164E-4             4.405725944546959E-4     3.7431419777499137E-4    5.781135957927968E-4     113.95976418456851
0.02252422110734303       -0.8183976390632104      0.8187075400658829       3.1140772559338274       -0.00897838751332468                  -2.4919699887152074E-4            2.0899404449351712E-6    0.00898184486148698      0.008981845104635858     10144.696266108558
0                         -0.8042841666829038      0.8042841666829038       3.141592653589793        -0.008979078470979278                 -1.0996199708777683E-18           0                        0.008979078470979278     0.008979078470979278     9969.748448692591
0.04495307272239848       -0.8325204212605192      0.8337331890736853       3.087648678947375        -0.0089712366941772                   -4.88294249925022E-4              3.874475870462979E-6     0.008984514682825002     0.008984515518238105     10319.759485968092
0.06716069910935284       -0.8465392634835666      0.8491992016742341       3.062422879036427        -0.008958453861348076                 -7.160781664977946E-4             5.3370980421913824E-6    0.008987025928627422     0.008987027513390458     10493.534285830394
0.08898328166878917       -0.8604589571751533      0.8650477682761221       3.0385452121670276       -0.008940994875097502                 -9.311212812173794E-4             6.465054850139705E-6     0.008989345604654517     0.00898934792945827      10666.080059390164
0.10992624535037285       -0.8748920907526165      0.881770916892996        3.016602150332482        -0.008920478774402224                 -0.0011280772796721996            7.202722638645418E-6     0.008991520896614756     0.00899152378151074      10844.990332009926
0.13304291811972196       -0.8832578892394995      0.8932216505244525       2.9920890812317817       -0.008891279355004946                 -0.0013474571198946064            8.094721334958657E-6     0.00899279843731518      0.008992802080480358     10948.691110475398
0.19481530384302828       -0.9546299842176356      0.974305603688501        2.9402827274359438       -0.008816237918398763                 -0.0018041874379181387            4.919767003311066E-6     0.00899895100224723      0.00899895234707651      11833.40552096288
0.1813652789318596        -0.9318935422325825      0.9493781851595396       2.9493753189697176       -0.00883065006154824                  -0.0017254187418750627            6.670968152734416E-6     0.008997633346748442     0.008997635819721515     11551.56906478822
0.16840124255842606       -0.9091880921899995      0.9246523484398409       2.95844666164642         -0.008843880448001903                 -0.0016462536095360276            8.039477805698866E-6     0.008995793888938173     0.008995797481349875     11270.116780095379
0.1571674587869222        -0.8870304764230736      0.9008466441103523       2.9662288364070117       -0.008853989755313417                 -0.0015780400175590791            9.114224574994881E-6     0.008993512206870197     0.008993516825147594     10995.455342233925
0.14874093776868028       -0.8684424367728741      0.8810880390496253       2.9719652940015275       -0.008860528446192497                 -0.001527583522481026             9.868533040300488E-6     0.008991238978917066     0.008991244394628697     10765.041667621756
0.23617377611184578       -0.9773692608751697      1.0054992414848476       2.9044953778046243       -0.008747285422009756                 -0.002116762778831332             2.96314868015546E-6      0.008999759893224933     0.008999760381029606     12115.277078888146
0.25                      -1                       1.0307764064044151       2.8966139904629293       -0.008731282501307986                 -0.0021828206253269983            0                        0.009                    0.009                    12395.803259668553
0.22243407139459614       -0.9547208907155617      0.9802902097266358       2.912692658586541        -0.008763075392392463                 -0.002047212842074571             5.417100517200347E-6     0.00899903002598232      0.008999031656434453     11834.532347394592
0.003300817202553569      -0.012846248524556021    0.013263540076440051     2.8900855106807186       -7.406693729766013E-4                 -7.394616202801496E-4             5.318710917377785E-4     9.013921176194963E-4     0.0010466110108024356    160.92290432003017
0.0017561059621907398     -0.015422543720979816    0.01552220225921489      3.0282148026681095       -0.0015119483739047155                -4.6060035471328465E-4            2.86588686337011E-4      0.0015543511498302897    0.0015805507179825382    192.43236790731075
0                         -0.016390154495850094    0.016390154495850094     3.141592653589793        -0.001801214778895155                 -2.2058519135508593E-19           0                        0.001801214778895155     0.001801214778895155     204.3135970241019
0.003059684652166651      -0.014382865613810246    0.014704709906544548     2.9319860341062918       -0.0012233495687092018                -7.753330245575984E-4             5.038145495987991E-4     0.001357901456602497     0.0014483526732914963    179.66718461076903
0.0050145515779502344     -0.012308869023925622    0.01329112426305912      2.7547289788630835       -7.154600138209637E-4                 -0.001128167244464545             7.748593350041075E-4     0.0010882267106703503    0.0013359058211039497    154.1788794490635
0.006444750466339492      -0.011864579093781875    0.01350196451061804      2.64399094373274         -7.402115682053705E-4                 -0.0014848240264600274            9.51441787807898E-4      0.0013591814005757042    0.0016591008273332945    148.5379414120236
0.007262698778762117      -0.010916685882743518    0.013111858152585556     2.554547743948329        -5.93736507016015E-4                  -0.001596406541112132             0.0010002654996294539    0.0013785883412100284    0.0017032430490887605    136.80161866856037
0.007646040156038612      -0.009232184956611125    0.011987291985299754     2.449895104834203        -2.787527060213071E-4                 -0.001333683871876731             8.493546171610412E-4     0.00106536964267128      0.0013625034830114413    116.08508084900474
0.007657530710289901      -0.007657530709475849    0.010829383784204836     2.3561944901391914       -5.632339712322167E-5                 -7.230445275093226E-4             4.714430324270796E-4     5.51096344572017E-4      7.252349369857189E-4     96.776769600204
0.022572471354887883      -0.7903955855477626      0.7907178372317508       3.113041965580756        -0.008972581953711554                 -2.586205887964515E-4             2.3766032565026304E-6    0.008976308031522572     0.008976308346142063     9797.588337478724
0                         -0.7763247619233186      0.7763247619233186       3.141592653589793        -0.00897317757998956                  -1.0988973201515007E-18           0                        0.00897317757998956      0.00897317757998956      9623.169189096652
0.045084389273497096      -0.8045160904017834      0.8057783453726804       3.0856120654808166       -0.008965061241186055                 -5.068420635720178E-4             4.44078026954779E-6      0.008979375936839543     0.00897937703494081      9972.623324401096
0.06747858411599914       -0.8186033197301384      0.8213797869362889       3.05934724216565         -0.008951445289622452                 -7.440812945813646E-4             6.180531878908308E-6     0.008982315489175134     0.00898231761551827      10147.245834019632
0.08965625345655076       -0.8325965973840233      0.837409898293135        3.0343232909358595       -0.008932617895547513                 -9.695201689666191E-4             7.587848813363618E-6     0.008985075083183173     0.00898507828713188      10320.703736632533
0.11132616471405915       -0.8463198201453643      0.8536104222189556       3.0108020839224037       -0.008909702538602106                 -0.0011807236486511793            8.653612244978973E-6     0.008987593269382638     0.008987597435402688     10490.814091363878
0.13176724601827863       -0.8587408308739755      0.8687913568477574       2.9893377767632963       -0.008884281266491038                 -0.0013727425026960562            9.407048009290655E-6     0.008989704506171467     0.008989709428053381     10644.78248207023
0.2087765800016165        -0.9320764772503355      0.9551723508354745       2.9212389649623876       -0.008778612662454728                 -0.0019739351273304153            7.422504399801324E-6     0.008997800012822459     0.008997803074324276     11553.836663026872
0.19537455540969337       -0.9094902196791379      0.930238505219786        2.9299907894820945       -0.008793520501703915                 -0.001898246066063082             9.036470835357749E-6     0.008996069101746934     0.008996073640272799     11273.861868655718
0.18241494672963865       -0.8871940958566832      0.9057530438885283       2.9388098436953887       -0.008807503872830346                 -0.0018214196860874795            1.0303516895118197E-5    0.008993863907149595     0.008993869809085996     10997.483516356564
0.15287172300829793       -0.8473018967723891      0.8609821531074927       2.9630911946837286       -0.008843676848508853                 -0.0016072216160764412            1.1444843821031711E-5    0.008988528830658815     0.00898853611685656      10502.987695746111
0.1688553429101807        -0.8658810905554335      0.8821916967478111       2.94899988550119         -0.008822891464079996                 -0.0017319346813518684            1.1173452515520353E-5    0.008991267245575781     0.008991274188200749     10733.291709818508
0.2639159332687079        -0.9773851834684321      1.0123899528821456       2.8778599028166467       -0.008687774642012291                 -0.002349180978109614             3.1732126599847955E-6    0.008999781632296712     0.008999782191714633     12115.474412081623
0.2777777777777777        -1                       1.0378634273483003       2.8706458032513726       -0.008671661186669465                 -0.0024087947740748517            0                        0.009                    0.009                    12395.803214150765
0.25010053840119023       -0.9547633103134783      0.9869768275037244       2.8853986537604004       -0.008703910317482267                 -0.0022860424883604097            5.853062549471881E-6     0.008999111668104917     0.00899911357153377      11835.058137074906
0.2363621286102463        -0.9321488707334574      0.9616488824154201       2.893259706475203        -0.008719955590005582                 -0.00221944528314344              8.096665881587645E-6     0.008997971843728943     0.00899797548654903      11554.73400732509
0.29167502865866685       -0.9773920244444713      1.0199850448858043       2.851584432231467        -0.008623028752286698                 -0.002576791926429355             3.346832499499302E-6     0.008999803903062932     0.008999804525370235     12115.559169364782
0.3055555555555556        -1                       1.0456405680399283       2.845046844520093        -0.00860716413946205                  -0.002629966820391181             0                        0.009                    0.009                    12395.80316687451
0.0019561935080576426     -0.01752947033296574     0.017638282886814488     3.0304579057907937       -0.002170570783045348                 -5.302817961354991E-4             2.8628084555049716E-4    0.0022159917836024755    0.0022344073727775756    218.2685718096814
0                         -0.018673978484055262    0.018673978484055262     3.141592653589793        -0.002479273505132655                 -3.0362343622715447E-19           0                        0.002479273505132655     0.002479273505132655     232.36010975320585
0.004677048868158718      -0.014120105082574096    0.01487454717489173      2.8217333270225464       -0.0012410937493986356                -0.001195420674138116             7.445476686175909E-4     0.001554024791343208     0.0017231785406489925    176.33701662736954
0.003968310619421664      -0.016191267198640617    0.01667047157911228      2.901240890147136        -0.0018359767411442517                -0.0010681445723739746            6.003962234476761E-4     0.002037466023369326     0.0021240864910626045    201.76992414141
0.006448783816069089      -0.013461134383920962    0.014926116427536463     2.6948313319767574       -0.0011943050632105302                -0.0016521895660017367            9.74033043569094E-4      0.001790908868717457     0.002038650275553734     168.09784580052704
0.008684636373420204      -0.007826077376415533    0.011690611448516124     2.3042411699514296       -1.8473303033716764E-4                -0.0013748709775198698            7.831504364284004E-4     0.001145020476343546     0.001387226188234635     98.51855935696967
0.009004367756426114      -0.0060051117639811444   0.01082312367068172      2.1589680542888305       -4.376718552404085E-5                 -8.449289816172693E-4             4.3238877014712226E-4    7.272279573532296E-4     8.460617888224782E-4     75.88653576076707
0.008316773916861132      -0.010630615657904978    0.01349735965477234      2.4777120938713244       -6.627921998237672E-4                 -0.0019143304589614198            0.0010993423048040315    0.0017015878182223888    0.0020258219581825716    133.09291029928715
0.008006149943811111      -0.012382734823106901    0.014745526732611857     2.567641283378189        -0.0010609080871806977                -0.0020324517645610597            0.0011307511980476698    0.001994439237687258     0.0022926809949735207    154.67414500711672
0.009359533346046372      -0.009223924309924225    0.013140838790996756     2.3488973213003335       -5.071102352266804E-4                 -0.0020639671716145155            0.0010875684604096031    0.0018260109857545675    0.002125352035822321     115.58181888599871
0.022606450463720285      -0.7623974322485364      0.762732519499287        3.111949546744676        -0.008966040850410159                 -2.6853405736148656E-4            2.6736993782943672E-6    0.00897006086503979      0.008970061263513575     9450.52876205164