% Model:              model_creeping.mph
% Version:            COMSOL 6.3.0.290
% Date:               Apr 1 2025, 15:57
% Dimension:          2
% Nodes:              4895
% Expressions:        8
% Description:        radius (spherical), theta (spherical), v_r (spherical), v_theta (spherical), u_r (cylindrical), u_z (cylindrical), Velocity magnitude, Pressure
% Length unit:        m
% r                       z                        sqrt(r^2 + z^2) (m)      atan2(r, z) (rad)        u*sin(theta) + w*cos(theta) (m/s) u*cos(theta) - w*sin(theta) (m/s) u (m/s)                  w (m/s)                  spf.U (m/s)              p (Pa)
0.018059802585330638      -0.981056344671386       0.9812225577764723       3.1231862051736226       -0.008998228367092971             -1.658704510956207E-4             2.2627946298675142E-7    0.008999757035703848     0.008999757038548502     12160.981633785268
0                         -0.9720405952404151      0.9720405952404151       3.141592653589793        -0.008999480533437632             -1.102118502926331E-18            0                        0.008999480533437632     0.008999480533437632     12049.224167146667
0                         -1.0000000000000002      1.0000000000000002       3.141592653589793        -0.009                            3.486904387862244E-17             -3.5971225997855055E-17  0.009                    0.009                    12395.803488135422
0.02777777777777779       -1                       1.0003857280760615       3.1138220169963717       -0.008996529785874466             -2.499036051631439E-4             -3.5971225997855055E-17  0.009                    0.009                    12395.803484281538
0.020699081606741145      -0.9578653692540474      0.9580889925239487       3.1199864224929446       -0.008996738138092512             -1.9496371587102753E-4            5.477307256220202E-7     0.008998850353012079     0.008998850369681372     11873.510837826527
0                         -0.9440811904808297      0.9440811904808296       3.141592653589793        -0.00899801120753536              -1.101938562400019E-18            0                        0.00899801120753536      0.00899801120753536      11702.644858713284
0.05555555555555536       -1                       1.0015420209622192       3.0860941483440762       -0.008986143178848712             -4.992301766027035E-4             0                        0.009                    0.009                    12395.803474982955
0.04182215354213424       -0.9753757588624679      0.976271972097651        3.0987409104746324       -0.008991308861175157             -3.8619985053425044E-4            6.699696081519775E-7     0.008999599152892326     0.008999599177830065     12090.566197023569
0.021726318426419703      -0.9302488052012658      0.9305024838713484       3.1182415143925195       -0.008994500178528273             -2.1096899615633764E-4            8.987419789270874E-7     0.00899697396745968      0.008996974012349059     11531.18132028223
0                         -0.9161217857212446      0.9161217857212446       3.141592653589793        -0.008995694155204941             -1.1016548053280284E-18           0                        0.008995694155204941     0.008995694155204941     11356.065560077972
0.07098479969139578       -0.9773920509589549      0.9799663581291859       3.069093203016021        -0.00897595098098553              -6.52935208697716E-4              1.0384033481220106E-6    0.008999667733951666     0.008999667793858405     12115.55974770621
0.08333333333333326       -1                       1.0034662148993578       3.0584514217013514       -0.008968911824203915             -7.474093186836608E-4             0                        0.009                    0.009                    12395.80345921922
0.0426147301745094        -0.9443903625261525      0.945351348473214        3.0964991801908117       -0.00898884207282283              -4.070537799863552E-4             1.439239851437081E-6     0.008998053818384264     0.008998053933487559     11706.47728845326
0.06252200475179942       -0.956635469121037       0.9586763905816241       3.076329327217237        -0.008979542388045648             -5.885506685289057E-4             1.678828279374601E-6     0.008998809397340848     0.008998809553942918     11858.265224698505
0.0980566058004551        -0.9772642157644246      0.9821712912495261       3.041589491638248        -0.00895456796414179              -8.999114666301829E-4             1.422086689938073E-6     0.00899967366352116      0.00899967377587693      12113.975111071413
0.11111111111111105       -1                       1.0061539042374907       3.0309354324158977       -0.00894495361206257              -9.93883734673618E-4              0                        0.009                    0.009                    12395.803437724602
0.022380431991997088      -0.9025123994814941      0.9027898509365248       3.1167998128723906       -0.008991505228053106             -2.2420282207831268E-4            1.2317990295711282E-6    0.00899429995353754      0.008994300037887008     11187.366278533014
0                         -0.8881623809616594      0.8881623809616594       3.141592653589793        -0.008992604120038826             -1.1012763851604848E-18           0                        0.008992604120038826     0.008992604120038826     11009.48627044726
0.04466184828351596       -0.9165209191390936      0.9176084545772608       3.0929014055871487       -0.008985017623455835             -4.3998631330518964E-4            2.145976691657921E-6     0.00899578373708994      0.008995783993055182     11361.013133435108
0.08536710625855433       -0.9546632949810713      0.9584725085338001       3.0524086907925327       -0.008962756135882195             -8.038321104913907E-4             2.3625672846864456E-6    0.008998729801001184     0.008998730111140737     11833.818529118713
0.0697222184038253        -0.931059516944699       0.9336664349929514       3.0668473489344623       -0.008971786689099927             -6.746759022564097E-4             2.8174394414682908E-6    0.008997118206949997     0.008997118648089294     11541.230730918867
0.12540761527873076       -0.9771946249002349      0.9852088128431501       3.0139559871456787       -0.00892624827266046              -0.0011473489884831075            1.7902348691804576E-6    0.008999684145657898     0.008999684323716417     12113.11245472986
0.13888888888888906       -1                       1.0095989914103471       3.0035866299322738       -0.008914430458599763             -0.0012381153414721896            0                        0.009                    0.009                    12395.803410821178
0.11212683576153507       -0.9543772974212443      0.9609414410519365       3.0246418784656703       -0.008936927298996299             -0.0010530644949724168            3.071433001656398E-6     0.008998755744235766     0.008998756268402698     11830.273342294562
0.02244890217186399       -0.8744604725581446      0.8747485760350431       3.115926573449681        -0.008987850319945338             -2.3226047523257026E-4            1.5264184443679654E-6    0.008990850681228305     0.008990850810801877     10839.64010655823
0                         -0.8602029762020742      0.8602029762020743       3.141592653589793        -0.008988790154949793             -1.1008093091466504E-18           0                        0.008988790154949793     0.008988790154949793     10662.906989033714
0.04469328881229368       -0.88848973142687        0.8896131141770846       3.0913324785138356       -0.008981238405336427             -4.545235188758114E-4             2.740963720680301E-6     0.008992731921380686     0.00899273233910035      11013.544036818124
0.06683382651283011       -0.9024245993506788      0.9048960812599313       3.067667325921953        -0.008969590572998577             -6.679383318700217E-4             3.637899809755239E-6     0.008994425130495622     0.008994425866191027     11186.277914343247
0.09879747695419146       -0.931242512623002       0.9364686640613854       3.0358959246057116       -0.008946592520896907             -9.531098312891934E-4             3.924985250057211E-6     0.008997217385389738     0.008997218241516019     11543.499094760604
0.0872585358913764        -0.9115394608718577      0.9157064162778721       3.0461568966227333       -0.008954105670896296             -8.614975655194151E-4             4.332038398321766E-6     0.0089954526097588       0.00899545365287227      11299.26393912715
0.1530331770885758        -0.9772114667192667      0.9891215314497223       2.986252411981702        -0.008891003839060689             -0.0013945065056843056            2.132379797704126E-6     0.008999699612406193     0.008999699865028153     12113.321196192073
0.16666666666666674       -1                       1.0137937550497034       2.9764439761751667       -0.008877545314489293             -0.0014795908857482172            0                        0.009                    0.009                    12395.80337897705
0.13961708884003046       -0.9542702319099645      0.9644296796582229       2.9963156924303935       -0.008903464723980655             -0.0013064389297289417            3.753467124571343E-6     0.008998802847032696     0.00899880362983209      11828.946157388484
0.12624531644986384       -0.9308499780743427      0.9393718973902353       3.006791441655998        -0.008915004091384455             -0.0012140796506911612            4.948523125533038E-6     0.00899729197368535      0.008997293334532556     11538.633295605103
0.02246628516073547       -0.8464039755345478      0.8467020867870888       3.1150556666557354       -0.008983477830365115             -2.402588837796435E-4             1.8078374204377291E-6    0.008986689879573037     0.008986690061412854     10491.8572924698
0                         -0.832243571442489       0.832243571442489        3.141592653589793        -0.008984279170435495             -1.1002568728720068E-18           0                        0.008984279170435495     0.008984279170435495     10316.327715254463
0.04489804746158695       -0.8605894234503858      0.8617598217720124       3.089468635439552        -0.008976599717631456             -4.7164191934946127E-4            3.3167562584026618E-6    0.008988980898288564     0.008988981510197289     10667.697307724438
0.06691575520563754       -0.8744164641893862      0.8769731302270377       3.0652153325628677       -0.008964505070899553             -6.905308712908113E-4             4.49835449655679E-6      0.008991060216414761     0.008991061341709856     10839.094577462107
0.08890455596333217       -0.8879833251085472      0.8924227729847939       3.0418055636392407       -0.008947654290360015             -9.012414247425072E-4             5.378757261540606E-6     0.00899292635766802      0.008992927966211555     11007.266708450252
0.11203005421335918       -0.9050050069596922      0.9119127127467631       3.018429781665623        -0.008926101380853035             -0.0011108226365430468            5.821200023331343E-6     0.00899495296845699      0.008994954852089196     11218.264118525582
0.18075708591825337       -0.9772767530489005      0.9938525927719163       2.9586995860242737       -0.008849173716599172             -0.0016392263786498516            2.441990955016765E-6     0.00899971847469082      0.008999718805996725     12114.13044200069
0.19444444444444453       -1                       1.0187289344940138       2.949544636349063        -0.008834538507017231             -0.001717826931920017             0                        0.009                    0.009                    12395.80334274662
0.16720762781511833       -0.9544695527144177      0.9690049111632096       2.9681686293259073       -0.008863135498056679             -0.0015571094542343828            4.364996118936628E-6     0.008998874466075597     0.008998875524718545     11831.41687306761
0.1539703675299491        -0.9314927748024774      0.9441322278084393       2.97777963045731         -0.008876058486831989             -0.0014730902220671989            5.849721988356804E-6     0.00899746491211635      0.008997466813721081     11546.601255662756
0.14156101711944097       -0.9082204903849874      0.9191865864573078       2.98697043572361         -0.008887088054594367             -0.0013922708759188842            6.9884760417687865E-6    0.008995482390803089     0.008995485105431826     11258.122599684044
0.20845591431316288       -0.9773354830335718      0.999319025441126        2.931451485811515        -0.008801190722448523             -0.001879986121332062             2.718736286191636E-6     0.008999738804975848     0.008999739215628145     12114.858412961634
0.2222222222222222        -1                       1.0243938285880987       2.922923707715851        -0.008785683541655574             -0.0019523741203679062            0                        0.009                    0.009                    12395.80330275824
0                         -0.012201308226429683    0.012201308226429683     3.141592653589793        -4.1978592907977876E-4            -5.1408949437464873E-20           0                        4.1978592907977876E-4    4.1978592907977876E-4    153.30836744886318
0.0020129089564233423     -0.011860499133471036    0.012030097346319211     2.97347914816161         -3.675701376642353E-4             -3.554641190383207E-4             2.8895000211112275E-4    4.218654315136245E-4     5.113340845535279E-4     149.10938137920581
0                         -0.010870800964035634    0.010870800964035634     3.141592653589793        -8.464858247626043E-5             -1.0366461558191308E-20           0                        8.464858247626043E-5     8.464858247626043E-5     137.36053595810603
0.002128588027399751      -0.010654288603358656    0.010864840202876787     2.944401939585434        -8.450924315379064E-5             -2.0988547591619652E-4            1.8926141871264727E-4    1.2399129229857567E-4    2.2626030402833549E-4    134.61885328250057
0                         -0.014235371127823006    0.014235371127823006     3.141592653589793        -0.0010893830573659594            -1.3341094742485795E-19           0                        0.0010893830573659594    0.0010893830573659594    177.97202385685935
0.0016289714823970174     -0.013443554136554204    0.013541886719099611     3.0210093215622624       -8.514273868174032E-4             -3.768917878311118E-4             2.717357113675187E-4     8.905816739215065E-4     9.311154680045026E-4     168.29952241191347
0.00391695626977252       -0.011254143452108003    0.011916303590456886     2.806659915793421        -3.233358436520368E-4             -6.681334698136005E-4             5.247245932379067E-4     5.249880975095046E-4     7.422589853112832E-4     141.54660030971198
0.0041522340328235844     -0.010024954347564834    0.010850841309967512     2.748913837776512        -7.59571273436727E-5              -4.0057317080157133E-4            3.410183482781216E-4     2.2346104022399394E-4    4.0771111140159975E-4    126.67356821973696
0.005899779410760234      -0.010473314882312713    0.012020720515830294     2.6285840064299184       -3.2533111656052766E-4            -0.0010395698636901155            7.460751366455495E-4     7.936735647446813E-4     0.001089286847848263     131.6825788984257
0.006014646648057178      -0.009018651956681535    0.010840297847233771     2.5534202665334527       -6.69650413612162E-5              -5.742220936783704E-4             4.405725944495777E-4     3.743141977708681E-4     5.781135957862266E-4     113.95976418456539
0.02252422110734303       -0.8183976390632104      0.8187075400658829       3.1140772559338274       -0.00897838751321895              -2.4919699888508286E-4            2.089940461401082E-6     0.008981844861381661     0.008981845104530541     10144.696266108565
0                         -0.8042841666829038      0.8042841666829038       3.141592653589793        -0.00897907847084672              -1.0996199708615346E-18           0                        0.00897907847084672      0.00897907847084672      9969.748448692597
0.04495307272239848       -0.8325204212605192      0.8337331890736853       3.087648678947375        -0.00897123669408531              -4.882942499505825E-4             3.874475900940866E-6     0.008984514682734623     0.008984515518147738     10319.759485968098
0.06716069910935284       -0.8465392634835666      0.8491992016742341       3.062422879036427        -0.008958453861269602             -7.160781665361372E-4             5.337098086620158E-6     0.008987025928552229     0.00898702751331529      10493.5342858304
0.08898328166878917       -0.8604589571751533      0.8650477682761221       3.0385452121670276       -0.008940994875026595             -9.311212812558139E-4             6.465054895664018E-6     0.00898934560458794      0.008989347929391727     10666.080059390166
0.10992624535037285       -0.8748920907526165      0.881770916892996        3.016602150332482        -0.008920478774338887             -0.001128077279713223             7.2027226872445125E-6    0.008991520896557028     0.008991523781453055     10844.990332009931
0.13304291811972196       -0.8832578892394995      0.8932216505244525       2.9920890812317817       -0.008891279354935019             -0.001347457119940198             8.094721390456752E-6     0.008992798437252826     0.008992802080418054     10948.691110475404
0.19481530384302828       -0.9546299842176356      0.974305603688501        2.9402827274359438       -0.008816237918382375             -0.0018041874379567978            4.919767044466044E-6     0.008998951002238903     0.008998952347068203     11833.405520962888
0.1813652789318596        -0.9318935422325825      0.9493781851595396       2.9493753189697176       -0.008830650061514421             -0.0017254187419195241            6.670968202837343E-6     0.00899763334672374      0.00899763581969685      11551.569064788227
0.16840124255842606       -0.9091880921899995      0.9246523484398409       2.95844666164642         -0.008843880447949808             -0.0016462536095877137            8.039477866008263E-6     0.008995793888896361     0.008995797481308118     11270.116780095384
0.1571674587869222        -0.8870304764230736      0.9008466441103523       2.9662288364070117       -0.00885398975523824              -0.001578040017613849             9.114224642040748E-6     0.008993512206805726     0.008993516825083191     10995.455342233936
0.14874093776868028       -0.8684424367728741      0.8810880390496253       2.9719652940015275       -0.008860528446095462             -0.0015275835225387168            9.86853311354407E-6      0.008991238978831162     0.008991244394542875     10765.041667621761
0.23617377611184578       -0.9773692608751697      1.0054992414848476       2.9044953778046243       -0.008747285422002983             -0.002116762778861497             2.963148711067132E-6     0.008999759893225436     0.00899976038103012      12115.277078888152
0.25                      -1                       1.0307764064044151       2.8966139904629293       -0.008731282501307986             -0.0021828206253269983            0                        0.009                    0.009                    12395.803259668559
0.22243407139459614       -0.9547208907155617      0.9802902097266358       2.912692658586541        -0.008763075392367753             -0.0020472128421165276            5.417100563669581E-6     0.008999030025967775     0.008999031656419935     11834.5323473946
0.003300817202553569      -0.012846248524556021    0.013263540076440051     2.8900855106807186       -7.406693729672931E-4             -7.394616202706885E-4             5.318710917309315E-4     9.013921176081262E-4     0.0010466110107891639    160.92290432002747
0.0017561059621907398     -0.015422543720979816    0.01552220225921489      3.0282148026681095       -0.0015119483738848616            -4.606003547072345E-4             2.8658868633324577E-4    0.001554351149809879     0.0015805507179617831    192.4323679073116
0                         -0.016390154495850094    0.016390154495850094     3.141592653589793        -0.0018012147788711633            -2.205851913521478E-19            0                        0.0018012147788711633    0.0018012147788711633    204.31359702410361
0.003059684652166651      -0.014382865613810246    0.014704709906544548     2.9319860341062918       -0.001223349568693661             -7.753330245476174E-4             5.038145495922702E-4     0.0013579014565852196    0.0014483526732730267    179.66718461076903
0.0050145515779502344     -0.012308869023925622    0.01329112426305912      2.7547289788630835       -7.154600138128913E-4             -0.0011281672444508192            7.748593349944419E-4     0.001088226710657696     0.001335905821088035     154.1788794490624
0.006444750466339492      -0.011864579093781875    0.01350196451061804      2.64399094373274         -7.402115681981296E-4             -0.0014848240264430034            9.514417877963947E-4     0.0013591814005612154    0.0016591008273148283    148.53794141202462
0.007262698778762117      -0.010916685882743518    0.013111858152585556     2.554547743948329        -5.937365070110745E-4             -0.0015964065410948459            0.0010002654996177985    0.0013785883411963403    0.0017032430490708371    136.80161866856218
0.007646040156038612      -0.009232184956611125    0.011987291985299754     2.449895104834203        -2.787527060195455E-4             -0.0013336838718632556            8.493546171517866E-4     0.001065369642661328     0.001362503482997891     116.08508084900726
0.007657530710289901      -0.007657530709475849    0.010829383784204836     2.3561944901391914       -5.6323397122977836E-5            -7.230445275024483E-4             4.714430324223911E-4     5.510963445669837E-4     7.252349369788465E-4     96.77676960020764
0.022572471354887883      -0.7903955855477626      0.7907178372317508       3.113041965580756        -0.008972581953563498             -2.586205888073277E-4             2.376603271600756E-6     0.008976308031374886     0.008976308345994381     9797.58833747873
0                         -0.7763247619233186      0.7763247619233186       3.141592653589793        -0.008973177579821192             -1.0988973201308815E-18           0                        0.008973177579821192     0.008973177579821192     9623.169189096656
0.045084389273497096      -0.8045160904017834      0.8057783453726804       3.0856120654808166       -0.008965061241051094             -5.068420636015926E-4             4.44078030662749E-6      0.008979375936706448     0.008979377034807735     9972.623324401102
0.06747858411599914       -0.8186033197301384      0.8213797869362889       3.05934724216565         -0.008951445289499189             -7.440812946255044E-4             6.180531933025214E-6     0.008982315489055913     0.00898231761539909      10147.245834019637
0.08965625345655076       -0.8325965973840233      0.837409898293135        3.0343232909358595       -0.008932617895440967             -9.695201690276659E-4             7.5878488854667785E-6    0.008985075083083773     0.008985078287032542     10320.703736632537
0.11132616471405915       -0.8463198201453643      0.8536104222189556       3.0108020839224037       -0.00890970253850156              -0.001180723648705467             8.653612311916584E-6     0.00898759326929003      0.008987597435310147     10490.814091363884
0.13176724601827863       -0.8587408308739755      0.8687913568477574       2.9893377767632963       -0.008884281266394968             -0.0013727425027534842            9.407048080624788E-6     0.008989704506085218     0.008989709427967204     10644.782482070235
0.2087765800016165        -0.9320764772503355      0.9551723508354745       2.9212389649623876       -0.008778612662409648             -0.001973935127386386             7.422504464271616E-6     0.008997800012790705     0.008997803074292576     11553.83666302688
0.19537455540969337       -0.9094902196791379      0.930238505219786        2.9299907894820945       -0.008793520501640622             -0.001898246066128156             9.036470912273858E-6     0.00899606910169872      0.00899607364022466      11273.861868655726
0.18241494672963865       -0.8871940958566832      0.9057530438885283       2.9388098436953887       -0.00880750387274603              -0.001821419686155714             1.0303516978935455E-5    0.008993863907080747     0.008993869809017245     10997.483516356571
0.15287172300829793       -0.8473018967723891      0.8609821531074927       2.9630911946837286       -0.00884367684838335              -0.0016072216161506917            1.1444843916385742E-5    0.008988528830548488     0.008988536116746356     10502.987695746117
0.1688553429101807        -0.8658810905554335      0.8821916967478111       2.94899988550119         -0.008822891463973435             -0.0017319346814204577            1.1173452603237017E-5    0.008991267245484323     0.008991274188109397     10733.291709818513
0.2639159332687079        -0.9773851834684321      1.0123899528821456       2.8778599028166467       -0.008687774642003388             -0.0023491809781398328            3.173212691479836E-6     0.008999781632295992     0.008999782191713922     12115.47441208163
0.2777777777777777        -1                       1.0378634273483003       2.8706458032513726       -0.008671661186669465             -0.0024087947740748517            0                        0.009                    0.009                    12395.80321415077
0.25010053840119023       -0.9547633103134783      0.9869768275037244       2.8853986537604004       -0.00870391031746483              -0.002286042488415886             5.85306260755508E-6      0.00899911166810211      0.008999113571531001     11835.058137074911
0.2363621286102463        -0.9321488707334574      0.9616488824154201       2.893259706475203        -0.008719955589957267             -0.002219445283211918             8.096665959839099E-6     0.008997971843698943     0.0089979754865191       11554.734007325096
0.29167502865866685       -0.9773920244444713      1.0199850448858043       2.851584432231467        -0.008623028752271904             -0.002576791926464168             3.346832537088344E-6     0.008999803903058714     0.00899980452536603      12115.559169364788
0.3055555555555556        -1                       1.0456405680399283       2.845046844520093        -0.00860716413946205              -0.002629966820391181             0                        0.009                    0.009                    12395.803166874515
0.0019561935080576426     -0.01752947033296574     0.017638282886814488     3.0304579057907937       -0.0021705707830167614            -5.302817961283433E-4             2.862808455465561E-4     0.002215991783573271     0.002234407372748107     218.26857180968452
0                         -0.018673978484055262    0.018673978484055262     3.141592653589793        -0.0024792735050993427            -3.0362343622307487E-19           0                        0.0024792735050993427    0.0024792735050993427    232.36010975320957
0.004677048868158718      -0.014120105082574096    0.01487454717489173      2.8217333270225464       -0.0012410937493839494            -0.0011954206741232201            7.445476686080686E-4     0.001554024791324583     0.0017231785406280813    176.33701662737056
0.003968310619421664      -0.016191267198640617    0.01667047157911228      2.901240890147136        -0.0018359767411213633            -0.0010681445723601298            6.003962234396779E-4     0.0020374660233438003    0.0021240864910358585    201.76992414141267
0.006448783816069089      -0.013461134383920962    0.014926116427536463     2.6948313319767574       -0.0011943050631981124            -0.0016521895659822752            9.740330435569082E-4     0.0017909088686978503    0.0020386502755306876    168.0978458005293
0.008684636373420204      -0.007826077376415533    0.011690611448516124     2.3042411699514296       -1.8473303033670122E-4            -0.0013748709775079542            7.8315043642077E-4       0.001145020476334382     0.0013872261882227632    98.51855935697576
0.009004367756426114      -0.0060051117639811444   0.01082312367068172      2.1589680542888305       -4.376718552413225E-5             -8.449289816112035E-4             4.323887701436807E-4     7.272279573482337E-4     8.46061788816425E-4      75.8865357607778
0.008316773916861132      -0.010630615657904978    0.01349735965477234      2.4777120938713244       -6.627921998192761E-4             -0.0019143304589419915            0.0010993423047914973    0.0017015878182068804    0.0020258219581627433    133.09291029929088
0.008006149943811111      -0.012382734823106901    0.014745526732611857     2.567641283378189        -0.001060908087171742             -0.0020324517645389467            0.0011307511980339624    0.001994439237667731     0.0022926809949497732    154.67414500712036
0.009359533346046372      -0.009223924309924225    0.013140838790996756     2.3488973213003335       -5.071102352247797E-4             -0.0020639671715960953            0.0010875684603980276    0.001826010985740114     0.0021253520358039788    115.5818188860046
0.022606450463720285      -0.7623974322485364      0.762732519499287        3.111949546744676        -0.008966040850208072             -2.6853405738083187E-4            2.67369940362085E-6      0.008970060864838368     0.008970061263312158     9450.528762051645
0                         -0.7483653571637332      0.7483653571637333       3.141592653589793        -0.008966549325048291             -1.098085593031725E-18            0                        0.008966549325048291     0.008966549325048291     9276.589936404505